<?xml version="1.0"?>
<VTKFile type="UnstructuredGrid"  version="0.1"  >
<UnstructuredGrid>
<Piece  NumberOfPoints="249" NumberOfCells="432">
<Points>
<DataArray  type="Float64"  NumberOfComponents="3"  format="ascii">0 1 0  0 0 0  1 0 0  1 1 0  0.5 0 0  1 0.5 0  0.5 1 0  0 0.5 0  0.5 0.5 0  0 0.25 0  0.25 0 0  0.25 1 0  0 0.75 0  1 0.25 0  0.75 0 0  1 0.75 0  0.75 1 0  0.7083333333333333 0.2916666666666667 0  0.2916666666666666 0.7083333333333334 0  0.375 0.25 0  0.75 0.625 0  0.2569444444444444 0.4652777777777778 0  0.5366379310344828 0.7535919540229885 0  0.1875 0.1875 0  0.8125 0.8125 0  0.869047619047619 0.375 0  0.1450441919191919 0.6052714646464646 0  0.375 0.8690476190476191 0  0.5526960784313725 0.1825980392156862 0  0.8385416666666666 0.1614583333333334 0  0.1614583333333333 0.8385416666666667 0  0.6736111111111112 0.4652777777777778 0  0.1367521367521368 0.3477564102564102 0  0.6570970491253563 0.8648656830417855 0  0.5102479397556124 0.3386260301221938 0  0.3654513888888889 0.5737847222222222 0  0.6929750044954185 0.1362784921584263 0  0.388576102743835 0.411911725237599 0  0.6091269841269842 0.5942460317460317 0  0.875 0.6875 0  0.427278890279516 0.119889445139758 0  0.8544456845238095 0.5213913690476191 0  0.125 0 0  0 0.125 0  1 0.875 0  0.875 1 0  0.1280008648150532 0.4769292340226777 0  0.2695382451711197 0.3321750950221553 0  0.7031567235715964 0.7447810921428012 0  0.625 0 0  0.375 0 0  0.125 1 0  0.875 0 0  0 0.375 0  0 0.625 0  1 0.375 0  0.375 1 0  1 0.125 0  0 0.875 0  0.625 1 0  1 0.625 0  0.2979288363930608 0.1201429454643536 0  0.410919540229885 0.7484605911330049 0  0.5325041980395562 0.878905151526474 0  0.4831670727569156 0.6331060043826487 0  0.1735997378973042 0.7204747378973043 0  0.2534919507575758 0.5772372159090909 0  0.2633928571428572 0.8876488095238095 0  0.8199404761904761 0.2730654761904762 0  0.75830270586982 0.3919383189517417 0  0.5750282248382511 0.4237522353023667 0  0.6008360210023379 0.2794828358598495 0  0.08163442644334186 0.6821295860397322 0  0.08333333333333333 0.1875 0  0.2028380815996574 0.08844602719988583 0  0.2766521142611967 0.2325436572164097 0  0.90625 0.78125 0  0.890625 0.890625 0  0.7545696325008384 0.8973565441669461 0  0.5625 0.08086590340834317 0  0.09077380952380953 0.09077380952380952 0  0.4610923478694773 0.209034015149656 0  0.7542527598351648 0.5248380520595106 0  0.6459235536037465 0.3619913988405765 0  0.7560381768882634 0.20506142233852 0  0.07073252688172042 0.8125 0  0.0924753097241701 0.9078102849914793 0  0.9292674731182795 0.1875 0  0.9075246902758297 0.09218971500852073 0  0.8125 0.07073252688172045 0  0.2400955776842301 0.7869705776842302 0  0.9121050213379069 0.2781978201831695 0  0.7916878157143976 0.7239689078571988 0  0.9345238095238094 0.4375 0  0.4375 0.9345238095238095 0  0.3725616989755203 0.6651895248862173 0  0.06536271996350887 0.5625 0  0.9348362560379583 0.5625 0  0.456646798987055 0.8277247094351965 0  0.1875 0.9355758238725954 0  0.6169761231634859 0.6939779188977889 0  0.6226854751147515 0.7827911461419014 0  0.3305695598137626 0.7901697871282585 0  0.5865305325818898 0.5101085479043448 0  0.6622701297028378 0.2177663989757395 0  0.1354166666666667 0.2591702279202279 0  0 0.3125 0  0.2094429575680048 0.3936361846162499 0  0.836666296419157 0.607917407161686 0  0.6875 1 0  0.214261555450504 0.6492551722020035 0  0 0.4375 0  0.07731537126068377 0.40625 0  0.3427725432967068 0.4879566233699599 0  0.3550792513951871 0.3331953632609953 0  0.4462473953896857 0.2887834789342508 0  0.4747801464819794 0.417386052030127 0  0.8229836475148948 0.4443292349237342 0  0.7322605135514757 0.8199240278289671 0  0.6756431877205955 0.5468989748126787 0  0.1968419507215863 0.5194573482612496 0  0.3285590277777778 0.9345238095238095 0  0.8125 1 0  0.4198917601920009 0.5134893045331258 0  0.5232405503206691 0.2595791787880157 0  1 0.9375 0  0.1987510870015086 0.3025185951894431 0  0.5625 1 0  0.6005390654136388 0.9228110509230952 0  0.6411254848194414 0.07704872765442942 0  0.3357233162523242 0.1855113224530532 0  0.6730653396610877 0.6393887462324165 0  0.310966987234063 0.6240019765311626 0  0.7368737836204349 0.07457755202327881 0  0.6192316414418171 0.1485238406378594 0  0.5432429670607106 0.678552703844006 0  0.4754371679695679 0.7103946803120881 0  0.07501324890749672 0.3043839897335739 0  0.5358146975860403 0.5688321463205916 0  0.3115271739500156 0.3982137365971444 0  0.3625191397122174 0.0767854603650549 0  0.5024029442563831 0.1264128223758444 0  0.4375 0 0  0.4699946908887376 0.06379961173775725 0  0.9375 0.71875 0  0.9272105898044465 0.635671179608893 0  0.9375 1 0  0.6690971819568612 0.9331530898202766 0  0.1073454944778885 0.7499206387638554 0  0.8699082999280406 0.2232403652524313 0  0.5773118091863964 0.3548027349159383 0  0.1354166666666667 0.1428571428571428 0  0.3125 0 0  0.8241684193077341 0.9257452995055244 0  0.4352314948354036 0.3586940847489378 0  0.4662209565718441 0.565526065767583 0  0.8073232928518163 0.3419398170341962 0  0.7775949246947366 0.1298519409204575 0  0.6875 0 0  0.7413513991851041 0.457933324954483 0  0.939453125 0.841796875 0  0.4181517292692987 0.6156641569613565 0  0.5630355154606987 0.8171875156478349 0  0.9345238095238095 0.3461466592368577 0  0.9375 0 0  1 0.0625 0  0 0.9375 0  0.0625 1 0  0.06552178593177167 0.4969053669623468 0  0.1424866619031703 0.4130277709291224 0  0.1275287182444726 0.5422946908002588 0  0.2637686595586339 0.06413888464529549 0  0.2524263535491086 0.1697437503243817 0  0.7367218397988525 0.6888573970660841 0  0.0625 0 0  0 0.0625 0  0.8463594539285995 0.7578283617857982 0  0.3128751192101563 0.2851997374369947 0  0.4015281788351144 0.1806421385113692 0  0.1910251795116588 0.4553332197174453 0  0.287797471442006 0.5222621440543902 0  0.3962628745986055 0.8097380085535307 0  0.3505895299554843 0.7304878890838692 0  0.5019151500495276 0.9356042615328103 0  0.9374389419410134 0.4999931039076005 0  1 0.6875 0  0.3125 1 0  0.1875 1 0  1 0.5625 0  0.4375 1 0  1 0.3125 0  1 0.4375 0  0.8125 0 0  1 0.1875 0  0.5625 0 0  0.1875 0 0  0 0.1875 0  0 0.5625 0  0 0.6875 0  0 0.8125 0  1 0.8125 0  0.8021696218581627 0.6612893947866073 0  0.06154922295426143 0.6239401126946708 0  0.9359375 0.9359375 0  0.4666158024849896 0.7691515918155014 0  0.2318201265217025 0.7064974250277525 0  0.1565954253579966 0.6635489312486841 0  0.1598132503680848 0.7787147500325552 0  0.3146529991605639 0.8510876378205265 0  0.1461873209418733 0.05982804528877814 0  0.07834729405756387 0.2458831984027539 0  0.8054950308560754 0.5564226538848541 0  0.470541749491976 0.8853316336952531 0  0.6948472567465137 0.4042308563372457 0  0.8802828472348889 0.4658893256343853 0  0.6788075634946739 0.7974194205806069 0  0.2155048659603867 0.2428201584940968 0  0.8131223143423806 0.2132171049028394 0  0.6015279126162613 0.2187368078743274 0  0.8061636571464289 0.8703766630361714 0  0.7008230445061776 0.3478568388444072 0  0.8638466246958771 0.3147095987735538 0  0.204801534004265 0.8789209409594009 0  0.2449006736431132 0.9424182882803838 0  0.7668995060585836 0.2989416792086452 0  0.7686682428612542 0.7760922706902215 0  0.4217002256860341 0.6930245164051368 0  0.5983639638906616 0.864113435029236 0  0.1956559506814437 0.577281203577426 0  0.3527670268164207 0.1320469097565204 0  0.4535919187979363 0.4690107087451527 0  0.8824869791666666 0.8336588541666666 0  0.8814453125 0.9451171875 0  0.5374075835658495 0.6238360372526102 0  0.6817532446064828 0.6939001801354731 0  0.3830295138888889 0.9450968952922078 0  0.4140603937012541 0.05211333372716105 0  0.5535864501303013 0.3060591985391672 0  0.6560130086346878 0.2729726562211558 0  0.890203140221684 0.5948314305427268 0  0.7043857725999024 0.593980890020804 0  0.5105843922695152 0.8016828014338627 0  0.05365910753708378 0.7315110031682004 0  0.616904573672261 0.4621186633436136 0  0.5338511646455415 0.387875898899613 0  0.5231769258947843 0.4477682463140762 0  0.6494157403084607 0.7364826666960869 0  0.4005572790159505 0.4638340011284909 0  0.5885218102730565 0.6460543413372084 0  </DataArray>
</Points>
<Cells>
<DataArray  type="UInt32"  Name="connectivity"  format="ascii">34 116 154  23 73 105  47 126 216  80 151 209  47 107 139  75 130 172  85 148 242  99 222 223  29 88 89  79 129 134  130 178 229  48 118 215  33 78 118  39 92 201  97 145 239  69 117 159  48 173 234  123 230 247  18 90 102  71 124 237  28 79 141  41 82 117  82 117 159  18 102 182  35 113 123  27 102 208  73 80 151  36 84 157  30 99 222  28 81 124  91 149 221  38 138 233  71 83 150  33 118 215  19 75 177  19 114 177  8 123 230  90 102 208  49 79 129  37 230 247  37 114 139  70 103 243  41 108 211  39 108 239  50 140 152  39 76 144  20 108 211  43 73 80  74 151 209  76 160 231  15 76 144  77 160 231  77 160 203  66 120 228  47 114 139  21 107 139  48 92 173  100 131 234  28 79 134  40 140 229  30 85 86  30 86 99  29 87 88  53 111 112  26 96 202  54 197 202  69 117 156  13 87 91  67 90 208  57 87 88  52 88 89  58 85 86  51 86 99  59 127 128  63 128 227  39 145 239  47 75 216  64 136 226  22 100 101  98 181 204  63 162 227  22 100 135  62 181 204  65 72 206  26 72 206  26 170 228  66 132 180  67 222 223  68 149 221  17 104 238  69 213 220  25 117 156  31 119 243  70 244 245  28 134 218  71 218 238  9 106 137  73 105 210  61 74 171  23 105 216  61 130 172  19 75 130  16 78 153  78 153 219  16 122 153  4 79 143  79 141 143  34 115 124  19 81 115  38 119 240  31 82 119  69 156 224  70 83 243  17 220 224  36 129 134  30 85 207  85 148 207  29 87 149  87 91 149  89 133 157  14 89 133  65 148 207  18 110 205  55 163 190  91 163 221  39 92 176  48 92 225  63 98 212  6 94 183  35 132 180  35 95 132  96 168 170  26 96 170  41 97 184  60 97 188  94 183 212  62 136 204  11 187 223  64 138 233  100 135 248  101 162 227  22 101 162  62 102 182  27 98 181  38 233 248  8 138 155  36 84 104  17 84 104  105 126 216  32 105 126  32 112 137  53 106 137  46 168 170  32 107 169  39 108 201  20 108 201  33 128 147  33 78 147  18 95 132  65 110 205  7 96 168  7 111 168  53 112 137  46 169 179  35 113 180  21 113 180  81 115 124  34 115 154  37 116 154  19 114 115  116 244 245  8 230 245  25 117 214  41 117 214  48 118 225  24 118 225  38 103 119  103 119 243  46 120 179  107 169 179  27 121 235  56 121 235  45 122 232  122 153 232  8 123 155  64 138 155  104 218 238  34 124 237  77 203 232  77 153 232  47 107 126  32 107 126  63 183 212  63 128 183  59 109 147  59 128 147  36 133 157  19 81 178  19 130 178  38 131 240  20 131 240  18 110 132  66 110 132  36 129 133  14 133 158  36 104 134  104 134 218  22 135 136  64 135 136  95 161 226  64 161 226  105 137 210  32 105 137  8 103 138  38 103 138  37 113 139  21 113 139  40 141 143  28 81 141  40 81 141  40 143 236  40 140 236  142 143 236  4 142 143  60 97 145  15 144 185  39 144 145  125 146 203  3 125 146  16 78 147  16 109 147  72 148 242  65 72 148  68 149 217  29 149 217  70 83 150  34 116 244  23 74 151  23 73 151  10 152 171  10 74 171  77 219 231  77 153 219  37 114 154  114 115 154  35 95 161  35 123 155  68 156 224  25 163 221  29 89 157  68 84 217  129 133 158  49 129 158  31 82 159  69 220 224  44 160 200  35 155 161  64 155 161  22 162 241  22 136 204  55 93 163  25 93 163  57 88 165  52 88 164  88 164 165  2 164 165  58 86 166  0 166 167  86 166 167  51 86 167  111 112 168  46 112 168  46 112 169  32 112 169  46 120 170  120 170 228  140 152 171  61 140 171  23 74 172  61 74 172  131 173 234  20 131 173  42 80 174  1 174 175  80 174 175  43 80 175  39 76 176  24 219 231  47 114 177  47 75 177  40 178 229  40 81 178  21 107 179  21 120 179  66 120 180  21 120 180  27 102 181  62 102 181  18 95 182  62 136 226  127 128 183  6 127 183  25 93 214  5 184 191  144 145 185  60 145 185  67 121 223  56 121 186  51 99 187  99 187 223  97 184 188  5 184 188  27 94 235  6 94 189  91 163 190  13 91 190  93 184 191  55 93 191  52 89 192  14 89 192  13 87 193  57 87 193  49 79 194  4 79 194  10 74 195  42 80 209  43 73 196  9 137 210  7 96 197  96 197 202  26 72 202  12 85 242  12 85 199  58 85 199  76 160 200  15 76 200  92 173 201  20 173 201  72 198 202  54 198 202  44 160 203  44 125 203  22 204 241  98 204 241  18 90 205  65 90 205  26 110 206  65 110 206  65 90 207  30 90 207  27 121 208  67 121 208  42 195 209  74 195 209  9 196 210  73 196 210  20 82 211  41 82 211  27 94 212  27 98 212  69 159 213  31 159 213  93 184 214  41 184 214  33 101 215  48 215 246  23 172 216  75 172 216  84 157 217  29 157 217  71 124 218  28 124 218  78 118 219  24 118 219  83 213 220  17 220 238  25 156 221  68 156 221  30 90 222  67 90 222  121 186 223  11 186 223  17 84 224  68 84 224  92 176 225  24 176 225  62 182 226  95 182 226  33 101 227  33 128 227  66 110 228  26 110 228  61 130 229  61 140 229  37 116 230  116 230 245  24 176 231  76 176 231  146 203 232  45 146 232  135 233 248  64 135 233  48 234 246  100 234 246  94 189 235  56 189 235  50 140 236  50 142 236  71 150 237  34 150 237  83 220 238  71 83 238  41 108 239  41 97 239  82 119 240  20 82 240  63 162 241  63 98 241  12 198 242  72 198 242  83 213 243  31 213 243  34 150 244  70 150 244  70 103 245  8 103 245  101 215 246  100 101 246  113 123 247  37 113 247  38 131 248  100 131 248  </DataArray>
<DataArray  type="UInt32"  Name="offsets"  format="ascii">3 6 9 12 15 18 21 24 27 30 33 36 39 42 45 48 51 54 57 60 63 66 69 72 75 78 81 84 87 90 93 96 99 102 105 108 111 114 117 120 123 126 129 132 135 138 141 144 147 150 153 156 159 162 165 168 171 174 177 180 183 186 189 192 195 198 201 204 207 210 213 216 219 222 225 228 231 234 237 240 243 246 249 252 255 258 261 264 267 270 273 276 279 282 285 288 291 294 297 300 303 306 309 312 315 318 321 324 327 330 333 336 339 342 345 348 351 354 357 360 363 366 369 372 375 378 381 384 387 390 393 396 399 402 405 408 411 414 417 420 423 426 429 432 435 438 441 444 447 450 453 456 459 462 465 468 471 474 477 480 483 486 489 492 495 498 501 504 507 510 513 516 519 522 525 528 531 534 537 540 543 546 549 552 555 558 561 564 567 570 573 576 579 582 585 588 591 594 597 600 603 606 609 612 615 618 621 624 627 630 633 636 639 642 645 648 651 654 657 660 663 666 669 672 675 678 681 684 687 690 693 696 699 702 705 708 711 714 717 720 723 726 729 732 735 738 741 744 747 750 753 756 759 762 765 768 771 774 777 780 783 786 789 792 795 798 801 804 807 810 813 816 819 822 825 828 831 834 837 840 843 846 849 852 855 858 861 864 867 870 873 876 879 882 885 888 891 894 897 900 903 906 909 912 915 918 921 924 927 930 933 936 939 942 945 948 951 954 957 960 963 966 969 972 975 978 981 984 987 990 993 996 999 1002 1005 1008 1011 1014 1017 1020 1023 1026 1029 1032 1035 1038 1041 1044 1047 1050 1053 1056 1059 1062 1065 1068 1071 1074 1077 1080 1083 1086 1089 1092 1095 1098 1101 1104 1107 1110 1113 1116 1119 1122 1125 1128 1131 1134 1137 1140 1143 1146 1149 1152 1155 1158 1161 1164 1167 1170 1173 1176 1179 1182 1185 1188 1191 1194 1197 1200 1203 1206 1209 1212 1215 1218 1221 1224 1227 1230 1233 1236 1239 1242 1245 1248 1251 1254 1257 1260 1263 1266 1269 1272 1275 1278 1281 1284 1287 1290 1293 1296 </DataArray>
<DataArray  type="UInt8"  Name="types"  format="ascii">5 5 5 5 5 5 5 5 5 5 5 5 5 5 5 5 5 5 5 5 5 5 5 5 5 5 5 5 5 5 5 5 5 5 5 5 5 5 5 5 5 5 5 5 5 5 5 5 5 5 5 5 5 5 5 5 5 5 5 5 5 5 5 5 5 5 5 5 5 5 5 5 5 5 5 5 5 5 5 5 5 5 5 5 5 5 5 5 5 5 5 5 5 5 5 5 5 5 5 5 5 5 5 5 5 5 5 5 5 5 5 5 5 5 5 5 5 5 5 5 5 5 5 5 5 5 5 5 5 5 5 5 5 5 5 5 5 5 5 5 5 5 5 5 5 5 5 5 5 5 5 5 5 5 5 5 5 5 5 5 5 5 5 5 5 5 5 5 5 5 5 5 5 5 5 5 5 5 5 5 5 5 5 5 5 5 5 5 5 5 5 5 5 5 5 5 5 5 5 5 5 5 5 5 5 5 5 5 5 5 5 5 5 5 5 5 5 5 5 5 5 5 5 5 5 5 5 5 5 5 5 5 5 5 5 5 5 5 5 5 5 5 5 5 5 5 5 5 5 5 5 5 5 5 5 5 5 5 5 5 5 5 5 5 5 5 5 5 5 5 5 5 5 5 5 5 5 5 5 5 5 5 5 5 5 5 5 5 5 5 5 5 5 5 5 5 5 5 5 5 5 5 5 5 5 5 5 5 5 5 5 5 5 5 5 5 5 5 5 5 5 5 5 5 5 5 5 5 5 5 5 5 5 5 5 5 5 5 5 5 5 5 5 5 5 5 5 5 5 5 5 5 5 5 5 5 5 5 5 5 5 5 5 5 5 5 5 5 5 5 5 5 5 5 5 5 5 5 5 5 5 5 5 5 5 5 5 5 5 5 5 5 5 5 5 5 5 5 5 5 5 5 5 5 5 5 5 5 5 5 5 5 5 5 5 5 5 5 5 5 5 5 5 5 5 5 5 5 5 5 5 5 </DataArray>
</Cells>
<PointData  Vectors="Displacement"> 